# Force coefficients
# liftDir     : (0.000000e+00 1.000000e+00 0.000000e+00)
# dragDir     : (1.000000e+00 0.000000e+00 0.000000e+00)
# pitchAxis   : (0.000000e+00 0.000000e+00 1.000000e+00)
# magUInf     : 1.000000e+01
# lRef        : 1.000000e-01
# Aref        : 5.000000e-04
# CofR        : (0.000000e+00 0.000000e+00 0.000000e+00)
# Time        	Cm            	Cd            	Cl            	Cl(f)         	Cl(r)         
0             	-5.806846e-05	2.589507e-04	4.235165e-21	-5.806846e-05	5.806846e-05
0.00203904    	-5.564927e-05	7.622831e-01	-7.836693e-04	-4.474839e-04	-3.361854e-04
0.00310253    	-5.522417e-05	2.578592e-02	-5.529773e-04	-3.317128e-04	-2.212645e-04
0.00412837    	-5.486070e-05	1.374445e-02	-4.559768e-04	-2.828491e-04	-1.731277e-04
0.0051494     	-5.449944e-05	1.005964e-02	-4.484226e-04	-2.787107e-04	-1.697119e-04
0.00616649    	-5.414157e-05	9.111471e-03	-4.391390e-04	-2.737111e-04	-1.654279e-04
0.00718004    	-5.378731e-05	8.637066e-03	-4.830132e-04	-2.952939e-04	-1.877193e-04
0.00819098    	-5.343540e-05	8.424725e-03	-5.210605e-04	-3.139656e-04	-2.070948e-04
0.00920019    	-5.308498e-05	8.353075e-03	-5.228526e-04	-3.145113e-04	-2.083413e-04
0.0102081     	-5.273636e-05	8.352969e-03	-5.487064e-04	-3.270896e-04	-2.216168e-04
0.011215      	-5.238968e-05	8.379715e-03	-5.903063e-04	-3.475428e-04	-2.427635e-04
0.0122211     	-5.204483e-05	8.421653e-03	-6.234680e-04	-3.637788e-04	-2.596892e-04
0.0132265     	-5.170207e-05	8.470432e-03	-6.806605e-04	-3.920323e-04	-2.886282e-04
0.0142313     	-5.136093e-05	8.524358e-03	-7.194525e-04	-4.110872e-04	-3.083653e-04
0.0152357     	-5.102143e-05	8.583336e-03	-7.600265e-04	-4.310347e-04	-3.289918e-04
0.01624       	-5.068324e-05	8.646773e-03	-7.940040e-04	-4.476853e-04	-3.463188e-04
0.0172444     	-5.034630e-05	8.714464e-03	-8.344011e-04	-4.675468e-04	-3.668542e-04
0.0182491     	-5.001050e-05	8.784063e-03	-8.723067e-04	-4.861639e-04	-3.861429e-04
0.0192544     	-4.967559e-05	8.860790e-03	-9.113332e-04	-5.053422e-04	-4.059910e-04
0.0202605     	-4.934141e-05	8.938406e-03	-9.491478e-04	-5.239153e-04	-4.252325e-04
0.0212675     	-4.900771e-05	9.021192e-03	-9.904288e-04	-5.442221e-04	-4.462067e-04
0.0222758     	-4.867426e-05	9.110959e-03	-1.033490e-03	-5.654191e-04	-4.680705e-04
0.0232855     	-4.834084e-05	9.199554e-03	-1.071121e-03	-5.839015e-04	-4.872198e-04
0.0242964     	-4.800744e-05	9.271528e-03	-1.116300e-03	-6.061575e-04	-5.101427e-04
0.0253088     	-4.767403e-05	9.337962e-03	-1.162214e-03	-6.287809e-04	-5.334328e-04
0.0263226     	-4.734034e-05	9.411161e-03	-1.207739e-03	-6.512096e-04	-5.565289e-04
0.0273382     	-4.700620e-05	9.498343e-03	-1.255197e-03	-6.746046e-04	-5.805922e-04
0.0283555     	-4.667124e-05	9.596653e-03	-1.297941e-03	-6.956417e-04	-6.022993e-04
0.0293747     	-4.633547e-05	9.693869e-03	-1.350288e-03	-7.214794e-04	-6.288084e-04
0.0303959     	-4.599860e-05	9.798719e-03	-1.402358e-03	-7.471774e-04	-6.551802e-04
0.0314191     	-4.566042e-05	9.908367e-03	-1.458203e-03	-7.747620e-04	-6.834412e-04
0.0324443     	-4.532073e-05	1.002158e-02	-1.517942e-03	-8.042918e-04	-7.136504e-04
0.0334716     	-4.497928e-05	1.013450e-02	-1.576826e-03	-8.333923e-04	-7.434338e-04
0.0345009     	-4.463589e-05	1.024759e-02	-1.638494e-03	-8.638829e-04	-7.746111e-04
0.0355323     	-4.429048e-05	1.036951e-02	-1.701444e-03	-8.950123e-04	-8.064313e-04
0.0365657     	-4.394292e-05	1.049623e-02	-1.767683e-03	-9.277846e-04	-8.398988e-04
0.0376011     	-4.359276e-05	1.063137e-02	-1.841630e-03	-9.644078e-04	-8.772223e-04
0.0386384     	-4.324021e-05	1.074194e-02	-1.893752e-03	-9.901160e-04	-9.036356e-04
0.0396775     	-4.288508e-05	1.087570e-02	-1.958994e-03	-1.022382e-03	-9.366119e-04
0.0407185     	-4.252718e-05	1.101389e-02	-2.038323e-03	-1.061688e-03	-9.766341e-04
0.0417612     	-4.216603e-05	1.114980e-02	-2.110286e-03	-1.097309e-03	-1.012977e-03
0.0428054     	-4.180160e-05	1.129829e-02	-2.195659e-03	-1.139631e-03	-1.056028e-03
0.0438513     	-4.143423e-05	1.143871e-02	-2.261502e-03	-1.172185e-03	-1.089317e-03
0.0448984     	-4.106377e-05	1.158336e-02	-2.349009e-03	-1.215568e-03	-1.133441e-03
0.0459466     	-4.069010e-05	1.173290e-02	-2.430098e-03	-1.255739e-03	-1.174359e-03
0.0469956     	-4.031314e-05	1.189048e-02	-2.511172e-03	-1.295899e-03	-1.215273e-03
0.0480455     	-3.993266e-05	1.206419e-02	-2.603775e-03	-1.341820e-03	-1.261955e-03
0.0490959     	-3.954909e-05	1.222458e-02	-2.681102e-03	-1.380100e-03	-1.301002e-03
0.0501469     	-3.916257e-05	1.236007e-02	-2.770877e-03	-1.424601e-03	-1.346276e-03
0.0511982     	-3.877330e-05	1.249414e-02	-2.859307e-03	-1.468427e-03	-1.390880e-03
0.0522497     	-3.838143e-05	1.263318e-02	-2.945544e-03	-1.511153e-03	-1.434390e-03
0.0533014     	-3.798667e-05	1.281151e-02	-3.057860e-03	-1.566917e-03	-1.490943e-03
0.0543531     	-3.758896e-05	1.297988e-02	-3.153514e-03	-1.614346e-03	-1.539168e-03
0.0554047     	-3.718866e-05	1.312976e-02	-3.252174e-03	-1.663276e-03	-1.588898e-03
0.056456      	-3.678553e-05	1.328705e-02	-3.352338e-03	-1.712955e-03	-1.639384e-03
0.057507      	-3.637978e-05	1.344670e-02	-3.441087e-03	-1.756923e-03	-1.684164e-03
0.0585575     	-3.597180e-05	1.361820e-02	-3.555441e-03	-1.813692e-03	-1.741748e-03
0.0596071     	-3.556136e-05	1.380793e-02	-3.650947e-03	-1.861035e-03	-1.789912e-03
0.0606559     	-3.514872e-05	1.398825e-02	-3.759348e-03	-1.914823e-03	-1.844525e-03
0.0617038     	-3.473408e-05	1.417570e-02	-3.874246e-03	-1.971857e-03	-1.902389e-03
0.0627506     	-3.431751e-05	1.436110e-02	-3.985238e-03	-2.026936e-03	-1.958301e-03
0.0637964     	-3.389939e-05	1.453107e-02	-4.097175e-03	-2.082487e-03	-2.014688e-03
0.0648411     	-3.348017e-05	1.470032e-02	-4.207564e-03	-2.137262e-03	-2.070302e-03
0.0658846     	-3.305995e-05	1.489130e-02	-4.343993e-03	-2.205056e-03	-2.138936e-03
0.0669268     	-3.263873e-05	1.507990e-02	-4.455596e-03	-2.260437e-03	-2.195159e-03
0.0679678     	-3.221674e-05	1.527067e-02	-4.580747e-03	-2.322590e-03	-2.258157e-03
0.0690075     	-3.179423e-05	1.545292e-02	-4.706920e-03	-2.385254e-03	-2.321666e-03
0.0700458     	-3.137113e-05	1.566394e-02	-4.827016e-03	-2.444879e-03	-2.382137e-03
0.0710828     	-3.094755e-05	1.587668e-02	-4.951032e-03	-2.506463e-03	-2.444568e-03
0.0721183     	-3.052386e-05	1.607287e-02	-5.084453e-03	-2.572750e-03	-2.511703e-03
0.0731524     	-3.010041e-05	1.627320e-02	-5.213579e-03	-2.636890e-03	-2.576689e-03
0.0741851     	-2.967747e-05	1.647300e-02	-5.346504e-03	-2.702930e-03	-2.643575e-03
0.0752163     	-2.925538e-05	1.667916e-02	-5.481562e-03	-2.770037e-03	-2.711526e-03
0.0762459     	-2.883454e-05	1.689270e-02	-5.617397e-03	-2.837533e-03	-2.779864e-03
0.0772741     	-2.841529e-05	1.709576e-02	-5.760925e-03	-2.908878e-03	-2.852047e-03
0.0783007     	-2.799770e-05	1.729053e-02	-5.891175e-03	-2.973585e-03	-2.917590e-03
0.0793258     	-2.758207e-05	1.749439e-02	-6.035102e-03	-3.045133e-03	-2.989969e-03
0.0803493     	-2.716838e-05	1.771232e-02	-6.173211e-03	-3.113774e-03	-3.059437e-03
0.0813713     	-2.675690e-05	1.793556e-02	-6.314866e-03	-3.184190e-03	-3.130676e-03
0.0823917     	-2.634795e-05	1.813709e-02	-6.460853e-03	-3.256775e-03	-3.204079e-03
0.0834105     	-2.594159e-05	1.835423e-02	-6.601416e-03	-3.326650e-03	-3.274767e-03
0.0844277     	-2.553806e-05	1.857713e-02	-6.737334e-03	-3.394205e-03	-3.343129e-03
0.0854434     	-2.513775e-05	1.879832e-02	-6.879604e-03	-3.464940e-03	-3.414664e-03
0.0864574     	-2.474101e-05	1.902532e-02	-7.037337e-03	-3.543409e-03	-3.493927e-03
0.0874699     	-2.434804e-05	1.924112e-02	-7.191711e-03	-3.620203e-03	-3.571507e-03
0.0884808     	-2.395909e-05	1.945735e-02	-7.345098e-03	-3.696508e-03	-3.648590e-03
0.08949       	-2.357436e-05	1.968533e-02	-7.495608e-03	-3.771378e-03	-3.724230e-03
0.0904977     	-2.319411e-05	1.990813e-02	-7.647097e-03	-3.846742e-03	-3.800354e-03
0.0915038     	-2.281893e-05	2.009157e-02	-7.817058e-03	-3.931348e-03	-3.885710e-03
0.0925083     	-2.244882e-05	2.031398e-02	-7.994270e-03	-4.019584e-03	-3.974686e-03
0.093511      	-2.208386e-05	2.053028e-02	-8.162030e-03	-4.103099e-03	-4.058931e-03
0.0945121     	-2.172447e-05	2.074577e-02	-8.329751e-03	-4.186600e-03	-4.143151e-03
0.0955116     	-2.137063e-05	2.097972e-02	-8.515815e-03	-4.279278e-03	-4.236537e-03
0.0965093     	-2.102319e-05	2.117235e-02	-8.661531e-03	-4.351789e-03	-4.309742e-03
0.0975054     	-2.068194e-05	2.138927e-02	-8.830847e-03	-4.436106e-03	-4.394742e-03
0.0984999     	-2.034715e-05	2.159727e-02	-9.001302e-03	-4.520998e-03	-4.480304e-03
0.0994927     	-2.001862e-05	2.182917e-02	-9.190560e-03	-4.615299e-03	-4.575262e-03
0.100484      	-1.969656e-05	2.204168e-02	-9.360836e-03	-4.700115e-03	-4.660721e-03
0.101473      	-1.938091e-05	2.226423e-02	-9.533244e-03	-4.786003e-03	-4.747241e-03
0.102461      	-1.907164e-05	2.246739e-02	-9.714514e-03	-4.876329e-03	-4.838185e-03
0.103447      	-1.876923e-05	2.267089e-02	-9.907749e-03	-4.972644e-03	-4.935105e-03
0.104432      	-1.847348e-05	2.286378e-02	-1.010132e-02	-5.069134e-03	-5.032187e-03
0.105415      	-1.818430e-05	2.306729e-02	-1.029393e-02	-5.165150e-03	-5.128781e-03
0.106396      	-1.790174e-05	2.326923e-02	-1.048693e-02	-5.261366e-03	-5.225562e-03
0.107375      	-1.762578e-05	2.347482e-02	-1.067751e-02	-5.356379e-03	-5.321127e-03
0.108353      	-1.735646e-05	2.367421e-02	-1.087651e-02	-5.455611e-03	-5.420898e-03
0.109329      	-1.709374e-05	2.387206e-02	-1.107586e-02	-5.555024e-03	-5.520837e-03
0.110304      	-1.683759e-05	2.406897e-02	-1.127890e-02	-5.656287e-03	-5.622612e-03
0.111277      	-1.658787e-05	2.427286e-02	-1.148587e-02	-5.759521e-03	-5.726346e-03
0.112248      	-1.634456e-05	2.446988e-02	-1.169038e-02	-5.861534e-03	-5.828845e-03
0.113218      	-1.610800e-05	2.465923e-02	-1.191048e-02	-5.971350e-03	-5.939134e-03
0.114186      	-1.587793e-05	2.484040e-02	-1.213025e-02	-6.081005e-03	-6.049249e-03
0.115153      	-1.565424e-05	2.499401e-02	-1.235153e-02	-6.191421e-03	-6.160112e-03
0.116117      	-1.543680e-05	2.518006e-02	-1.256720e-02	-6.299039e-03	-6.268165e-03
0.117081      	-1.522554e-05	2.536065e-02	-1.279643e-02	-6.413442e-03	-6.382991e-03
0.118042      	-1.502049e-05	2.552939e-02	-1.303985e-02	-6.534947e-03	-6.504906e-03
0.119002      	-1.482156e-05	2.569528e-02	-1.325999e-02	-6.644816e-03	-6.615173e-03
0.11996       	-1.462859e-05	2.586303e-02	-1.348083e-02	-6.755045e-03	-6.725787e-03
0.120917      	-1.444160e-05	2.603859e-02	-1.373017e-02	-6.879525e-03	-6.850642e-03
0.121872      	-1.426050e-05	2.620716e-02	-1.397109e-02	-6.999808e-03	-6.971287e-03
0.122826      	-1.408523e-05	2.637486e-02	-1.421388e-02	-7.121026e-03	-7.092855e-03
0.123777      	-1.391569e-05	2.654473e-02	-1.446190e-02	-7.244866e-03	-7.217035e-03
0.124727      	-1.375174e-05	2.666673e-02	-1.469271e-02	-7.360108e-03	-7.332605e-03
0.125676      	-1.359294e-05	2.683026e-02	-1.494102e-02	-7.484101e-03	-7.456915e-03
0.126623      	-1.343926e-05	2.698320e-02	-1.521383e-02	-7.620355e-03	-7.593477e-03
0.127568      	-1.329052e-05	2.712562e-02	-1.547969e-02	-7.753138e-03	-7.726557e-03
0.128512      	-1.314661e-05	2.727056e-02	-1.575001e-02	-7.888151e-03	-7.861858e-03
0.129454      	-1.300721e-05	2.742068e-02	-1.602410e-02	-8.025059e-03	-7.999044e-03
0.130395      	-1.287205e-05	2.756936e-02	-1.630321e-02	-8.164475e-03	-8.138731e-03
0.131333      	-1.274084e-05	2.771537e-02	-1.657633e-02	-8.300906e-03	-8.275425e-03
0.132271      	-1.261378e-05	2.782920e-02	-1.682693e-02	-8.426077e-03	-8.400850e-03
0.133206      	-1.249062e-05	2.795261e-02	-1.708389e-02	-8.554438e-03	-8.529457e-03
0.13414       	-1.237116e-05	2.808294e-02	-1.735949e-02	-8.692118e-03	-8.667375e-03
0.135073      	-1.225472e-05	2.822452e-02	-1.765688e-02	-8.840694e-03	-8.816185e-03
0.136003      	-1.214186e-05	2.834537e-02	-1.793491e-02	-8.979599e-03	-8.955315e-03
0.136933      	-1.203253e-05	2.847611e-02	-1.825799e-02	-9.141026e-03	-9.116961e-03
0.13786       	-1.192682e-05	2.858193e-02	-1.852335e-02	-9.273600e-03	-9.249746e-03
0.138786      	-1.182460e-05	2.869655e-02	-1.880516e-02	-9.414405e-03	-9.390756e-03
0.139711      	-1.172556e-05	2.881393e-02	-1.910172e-02	-9.562587e-03	-9.539136e-03
0.140633      	-1.162963e-05	2.894073e-02	-1.939273e-02	-9.707994e-03	-9.684734e-03
0.141554      	-1.153680e-05	2.904197e-02	-1.968736e-02	-9.855215e-03	-9.832142e-03
0.142474      	-1.144702e-05	2.913537e-02	-1.998788e-02	-1.000539e-02	-9.982495e-03
0.143392      	-1.136031e-05	2.925043e-02	-2.027991e-02	-1.015132e-02	-1.012860e-02
0.144308      	-1.127622e-05	2.937420e-02	-2.056641e-02	-1.029448e-02	-1.027193e-02
0.145223      	-1.119503e-05	2.948024e-02	-2.086326e-02	-1.044282e-02	-1.042043e-02
0.146136      	-1.111653e-05	2.959770e-02	-2.115662e-02	-1.058943e-02	-1.056719e-02
0.147047      	-1.104070e-05	2.971068e-02	-2.147861e-02	-1.075034e-02	-1.072826e-02
0.147957      	-1.096741e-05	2.980330e-02	-2.178034e-02	-1.090114e-02	-1.087920e-02
0.148866      	-1.089620e-05	2.989949e-02	-2.207887e-02	-1.105033e-02	-1.102854e-02
0.149772      	-1.082767e-05	2.998345e-02	-2.237910e-02	-1.120038e-02	-1.117872e-02
0.150678      	-1.076181e-05	3.005561e-02	-2.267859e-02	-1.135006e-02	-1.132853e-02
0.151581      	-1.069862e-05	3.016848e-02	-2.301846e-02	-1.151993e-02	-1.149853e-02
0.152483      	-1.063800e-05	3.027531e-02	-2.334069e-02	-1.168098e-02	-1.165971e-02
0.153383      	-1.058021e-05	3.037278e-02	-2.365802e-02	-1.183959e-02	-1.181843e-02
0.154282      	-1.052527e-05	3.047304e-02	-2.396561e-02	-1.199333e-02	-1.197228e-02
0.155179      	-1.047278e-05	3.057395e-02	-2.425847e-02	-1.213971e-02	-1.211876e-02
0.156075      	-1.042291e-05	3.066343e-02	-2.456803e-02	-1.229444e-02	-1.227359e-02
0.156969      	-1.037584e-05	3.078022e-02	-2.491450e-02	-1.246763e-02	-1.244687e-02
0.157861      	-1.033127e-05	3.088719e-02	-2.521967e-02	-1.262016e-02	-1.259950e-02
0.158752      	-1.028923e-05	3.099120e-02	-2.554600e-02	-1.278329e-02	-1.276271e-02
0.159641      	-1.024999e-05	3.106525e-02	-2.588228e-02	-1.295139e-02	-1.293089e-02
0.160528      	-1.021349e-05	3.116840e-02	-2.620797e-02	-1.311420e-02	-1.309377e-02
0.161414      	-1.017965e-05	3.123456e-02	-2.649930e-02	-1.325983e-02	-1.323947e-02
0.162299      	-1.014841e-05	3.133537e-02	-2.682869e-02	-1.342449e-02	-1.340419e-02
0.163182      	-1.011976e-05	3.144732e-02	-2.715506e-02	-1.358765e-02	-1.356741e-02
0.164063      	-1.009362e-05	3.153870e-02	-2.745808e-02	-1.373913e-02	-1.371895e-02
0.164943      	-1.007026e-05	3.164552e-02	-2.779790e-02	-1.390902e-02	-1.388888e-02
0.165821      	-1.004906e-05	3.171555e-02	-2.813393e-02	-1.407702e-02	-1.405692e-02
0.166697      	-1.003053e-05	3.178674e-02	-2.846945e-02	-1.424476e-02	-1.422470e-02
0.167572      	-1.001465e-05	3.187783e-02	-2.879710e-02	-1.440856e-02	-1.438854e-02
0.168446      	-1.000145e-05	3.198467e-02	-2.912633e-02	-1.457317e-02	-1.455317e-02
0.169318      	-9.991024e-06	3.206709e-02	-2.943902e-02	-1.472950e-02	-1.470952e-02
0.170188      	-9.983443e-06	3.215837e-02	-2.977305e-02	-1.489651e-02	-1.487654e-02
0.171057      	-9.978659e-06	3.225892e-02	-3.009054e-02	-1.505525e-02	-1.503529e-02
0.171924      	-9.976735e-06	3.233426e-02	-3.040701e-02	-1.521348e-02	-1.519353e-02
0.17279       	-9.977927e-06	3.243503e-02	-3.074450e-02	-1.538223e-02	-1.536227e-02
0.173654      	-9.982396e-06	3.251227e-02	-3.108480e-02	-1.555238e-02	-1.553242e-02
0.174516      	-9.989721e-06	3.257731e-02	-3.137556e-02	-1.569777e-02	-1.567779e-02
0.175377      	-9.999938e-06	3.266756e-02	-3.173007e-02	-1.587503e-02	-1.585504e-02
0.176237      	-1.001264e-05	3.276866e-02	-3.207528e-02	-1.604765e-02	-1.602763e-02
0.177095      	-1.002788e-05	3.290140e-02	-3.239646e-02	-1.620826e-02	-1.618820e-02
0.177951      	-1.004573e-05	3.300026e-02	-3.273153e-02	-1.637581e-02	-1.635572e-02
0.178806      	-1.006638e-05	3.305327e-02	-3.303636e-02	-1.652825e-02	-1.650812e-02
0.17966       	-1.008982e-05	3.313908e-02	-3.334981e-02	-1.668499e-02	-1.666482e-02
0.180512      	-1.011595e-05	3.323541e-02	-3.366858e-02	-1.684441e-02	-1.682418e-02
0.181362      	-1.014486e-05	3.333462e-02	-3.397947e-02	-1.699988e-02	-1.697959e-02
0.182211      	-1.017643e-05	3.342352e-02	-3.428011e-02	-1.715023e-02	-1.712988e-02
0.183058      	-1.021061e-05	3.351331e-02	-3.456768e-02	-1.729405e-02	-1.727363e-02
0.183904      	-1.024782e-05	3.362079e-02	-3.492950e-02	-1.747500e-02	-1.745450e-02
0.184749      	-1.028797e-05	3.369120e-02	-3.524695e-02	-1.763376e-02	-1.761319e-02
0.185592      	-1.033121e-05	3.377888e-02	-3.556013e-02	-1.779040e-02	-1.776973e-02
0.186433      	-1.037728e-05	3.389192e-02	-3.584913e-02	-1.793494e-02	-1.791419e-02
0.187273      	-1.042623e-05	3.401477e-02	-3.617823e-02	-1.809954e-02	-1.807869e-02
0.188111      	-1.047794e-05	3.406750e-02	-3.645860e-02	-1.823978e-02	-1.821882e-02
0.188948      	-1.053245e-05	3.413681e-02	-3.675628e-02	-1.838867e-02	-1.836761e-02
0.189784      	-1.059009e-05	3.425779e-02	-3.705316e-02	-1.853717e-02	-1.851599e-02
0.190618      	-1.065082e-05	3.436364e-02	-3.733515e-02	-1.867822e-02	-1.865692e-02
0.19145       	-1.071418e-05	3.444528e-02	-3.763633e-02	-1.882888e-02	-1.880745e-02
0.192281      	-1.078029e-05	3.456064e-02	-3.794547e-02	-1.898352e-02	-1.896196e-02
0.193111      	-1.084901e-05	3.463945e-02	-3.823466e-02	-1.912818e-02	-1.910648e-02
0.193939      	-1.092044e-05	3.473611e-02	-3.854741e-02	-1.928462e-02	-1.926278e-02
0.194765      	-1.099455e-05	3.486373e-02	-3.881667e-02	-1.941933e-02	-1.939734e-02
0.19559       	-1.107172e-05	3.496215e-02	-3.911195e-02	-1.956704e-02	-1.954490e-02
0.196414      	-1.115166e-05	3.505758e-02	-3.939162e-02	-1.970696e-02	-1.968466e-02
0.197236      	-1.123443e-05	3.512635e-02	-3.963975e-02	-1.983111e-02	-1.980864e-02
0.198057      	-1.131994e-05	3.524586e-02	-3.990400e-02	-1.996332e-02	-1.994068e-02
0.198877      	-1.140820e-05	3.535554e-02	-4.014990e-02	-2.008636e-02	-2.006354e-02
0.199695      	-1.149946e-05	3.545101e-02	-4.044175e-02	-2.023237e-02	-2.020937e-02
0.200511      	-1.159364e-05	3.554248e-02	-4.069624e-02	-2.035972e-02	-2.033653e-02
0.201326      	-1.169069e-05	3.560311e-02	-4.091711e-02	-2.047025e-02	-2.044687e-02
0.20214       	-1.179085e-05	3.574536e-02	-4.123315e-02	-2.062837e-02	-2.060479e-02
0.202953      	-1.189394e-05	3.585570e-02	-4.147925e-02	-2.075152e-02	-2.072773e-02
0.203764      	-1.199968e-05	3.596379e-02	-4.173283e-02	-2.087841e-02	-2.085442e-02
0.204573      	-1.210754e-05	3.605613e-02	-4.196432e-02	-2.099427e-02	-2.097005e-02
0.205382      	-1.221747e-05	3.617195e-02	-4.218973e-02	-2.110708e-02	-2.108265e-02
0.206189      	-1.232970e-05	3.625012e-02	-4.241645e-02	-2.122055e-02	-2.119589e-02
0.206994      	-1.244420e-05	3.636053e-02	-4.266181e-02	-2.134335e-02	-2.131846e-02
0.207798      	-1.256085e-05	3.645251e-02	-4.289685e-02	-2.146099e-02	-2.143586e-02
0.208601      	-1.267968e-05	3.652556e-02	-4.309217e-02	-2.155876e-02	-2.153340e-02
0.209403      	-1.280092e-05	3.660483e-02	-4.326464e-02	-2.164512e-02	-2.161952e-02
0.210204      	-1.292467e-05	3.673961e-02	-4.351389e-02	-2.176987e-02	-2.174402e-02
0.211003      	-1.305079e-05	3.681410e-02	-4.371746e-02	-2.187178e-02	-2.184568e-02
0.2118        	-1.317932e-05	3.691405e-02	-4.393979e-02	-2.198307e-02	-2.195671e-02
0.212597      	-1.331018e-05	3.703507e-02	-4.412689e-02	-2.207676e-02	-2.205014e-02
0.213392      	-1.344347e-05	3.712745e-02	-4.432591e-02	-2.217640e-02	-2.214951e-02
0.214186      	-1.357920e-05	3.722984e-02	-4.451417e-02	-2.227067e-02	-2.224351e-02
0.214979      	-1.371695e-05	3.735931e-02	-4.469566e-02	-2.236154e-02	-2.233411e-02
0.21577       	-1.385635e-05	3.742354e-02	-4.488714e-02	-2.245743e-02	-2.242971e-02
0.21656       	-1.399729e-05	3.748241e-02	-4.506451e-02	-2.254625e-02	-2.251826e-02
0.217348      	-1.413979e-05	3.758529e-02	-4.520865e-02	-2.261846e-02	-2.259018e-02
0.218136      	-1.428382e-05	3.769323e-02	-4.538162e-02	-2.270510e-02	-2.267653e-02
0.218922      	-1.442941e-05	3.780474e-02	-4.552359e-02	-2.277622e-02	-2.274736e-02
0.219706      	-1.457657e-05	3.790223e-02	-4.566586e-02	-2.284750e-02	-2.281835e-02
0.22049       	-1.472541e-05	3.800032e-02	-4.582763e-02	-2.292854e-02	-2.289909e-02
0.221272      	-1.487591e-05	3.809109e-02	-4.600413e-02	-2.301694e-02	-2.298719e-02
0.222052      	-1.502791e-05	3.817144e-02	-4.613960e-02	-2.308483e-02	-2.305477e-02
0.222832      	-1.518150e-05	3.824836e-02	-4.627469e-02	-2.315253e-02	-2.312216e-02
0.22361       	-1.533632e-05	3.835241e-02	-4.638238e-02	-2.320653e-02	-2.317585e-02
0.224387      	-1.549239e-05	3.843310e-02	-4.649053e-02	-2.326076e-02	-2.322977e-02
0.225163      	-1.564926e-05	3.848009e-02	-4.657855e-02	-2.330492e-02	-2.327362e-02
0.225938      	-1.580714e-05	3.860425e-02	-4.668896e-02	-2.336029e-02	-2.332867e-02
0.226711      	-1.596593e-05	3.873521e-02	-4.680113e-02	-2.341653e-02	-2.338460e-02
0.227483      	-1.612560e-05	3.880835e-02	-4.687523e-02	-2.345374e-02	-2.342149e-02
0.228254      	-1.628629e-05	3.891846e-02	-4.700699e-02	-2.351978e-02	-2.348721e-02
0.229024      	-1.644790e-05	3.898090e-02	-4.708795e-02	-2.356042e-02	-2.352752e-02
0.229793      	-1.661017e-05	3.902783e-02	-4.717234e-02	-2.360278e-02	-2.356956e-02
0.230561      	-1.677315e-05	3.916270e-02	-4.727243e-02	-2.365299e-02	-2.361944e-02
0.231327      	-1.693690e-05	3.924940e-02	-4.735845e-02	-2.369616e-02	-2.366229e-02
0.232093      	-1.710151e-05	3.931054e-02	-4.742751e-02	-2.373086e-02	-2.369666e-02
0.232857      	-1.726690e-05	3.938511e-02	-4.749125e-02	-2.376289e-02	-2.372836e-02
0.23362       	-1.743287e-05	3.946154e-02	-4.753509e-02	-2.378498e-02	-2.375011e-02
0.234383      	-1.759880e-05	3.953691e-02	-4.758443e-02	-2.380981e-02	-2.377462e-02
0.235144      	-1.776401e-05	3.959149e-02	-4.762595e-02	-2.383074e-02	-2.379521e-02
0.235904      	-1.792845e-05	3.964016e-02	-4.766750e-02	-2.385168e-02	-2.381582e-02
0.236663      	-1.809201e-05	3.975930e-02	-4.770881e-02	-2.387250e-02	-2.383631e-02
0.237421      	-1.825462e-05	3.986139e-02	-4.770847e-02	-2.387249e-02	-2.383598e-02
0.238179      	-1.841617e-05	3.991420e-02	-4.771975e-02	-2.387829e-02	-2.384146e-02
0.238935      	-1.857677e-05	4.000660e-02	-4.775704e-02	-2.389710e-02	-2.385994e-02
0.23969       	-1.873611e-05	4.006093e-02	-4.779902e-02	-2.391825e-02	-2.388077e-02
0.240444      	-1.889407e-05	4.012926e-02	-4.777604e-02	-2.390692e-02	-2.386913e-02
0.241198      	-1.905111e-05	4.019709e-02	-4.778122e-02	-2.390966e-02	-2.387156e-02
0.24195       	-1.920742e-05	4.024094e-02	-4.777146e-02	-2.390494e-02	-2.386652e-02
0.242702      	-1.936301e-05	4.031960e-02	-4.778443e-02	-2.391158e-02	-2.387285e-02
0.243452      	-1.951792e-05	4.035577e-02	-4.775985e-02	-2.389944e-02	-2.386041e-02
0.244202      	-1.967112e-05	4.043969e-02	-4.772923e-02	-2.388429e-02	-2.384494e-02
0.244951      	-1.982271e-05	4.049970e-02	-4.770132e-02	-2.387048e-02	-2.383084e-02
0.245699      	-1.997274e-05	4.053315e-02	-4.764180e-02	-2.384087e-02	-2.380093e-02
0.246447      	-2.012113e-05	4.060551e-02	-4.763229e-02	-2.383627e-02	-2.379602e-02
0.247193      	-2.026786e-05	4.065426e-02	-4.758621e-02	-2.381338e-02	-2.377284e-02
0.247939      	-2.041297e-05	4.067577e-02	-4.755741e-02	-2.379912e-02	-2.375829e-02
0.248684      	-2.055643e-05	4.071233e-02	-4.747741e-02	-2.375926e-02	-2.371815e-02
0.249428      	-2.069828e-05	4.077193e-02	-4.743274e-02	-2.373707e-02	-2.369567e-02
0.250171      	-2.083838e-05	4.079555e-02	-4.738654e-02	-2.371411e-02	-2.367243e-02
0.250914      	-2.097664e-05	4.081153e-02	-4.733531e-02	-2.368863e-02	-2.364668e-02
0.251656      	-2.111317e-05	4.086012e-02	-4.728534e-02	-2.366378e-02	-2.362156e-02
0.252397      	-2.124797e-05	4.093431e-02	-4.719653e-02	-2.361951e-02	-2.357702e-02
0.253137      	-2.138111e-05	4.096265e-02	-4.711517e-02	-2.357897e-02	-2.353620e-02
0.253877      	-2.151177e-05	4.097860e-02	-4.700835e-02	-2.352569e-02	-2.348267e-02
0.254616      	-2.163979e-05	4.101043e-02	-4.694889e-02	-2.349609e-02	-2.345281e-02
0.255354      	-2.176457e-05	4.102245e-02	-4.684036e-02	-2.344194e-02	-2.339842e-02
0.256092      	-2.188661e-05	4.104845e-02	-4.673214e-02	-2.338796e-02	-2.334418e-02
0.256829      	-2.200664e-05	4.108130e-02	-4.660314e-02	-2.332358e-02	-2.327956e-02
0.257566      	-2.212469e-05	4.109592e-02	-4.654305e-02	-2.329365e-02	-2.324940e-02
0.258302      	-2.224076e-05	4.111770e-02	-4.641776e-02	-2.323112e-02	-2.318664e-02
0.259037      	-2.235477e-05	4.112799e-02	-4.631910e-02	-2.318190e-02	-2.313719e-02
0.259772      	-2.246671e-05	4.112490e-02	-4.623002e-02	-2.313748e-02	-2.309255e-02
0.260507      	-2.257671e-05	4.114193e-02	-4.616304e-02	-2.310410e-02	-2.305894e-02
0.26124       	-2.268468e-05	4.116784e-02	-4.598908e-02	-2.301723e-02	-2.297186e-02
0.261974      	-2.279075e-05	4.113458e-02	-4.583002e-02	-2.293780e-02	-2.289222e-02
0.262706      	-2.289497e-05	4.116727e-02	-4.569668e-02	-2.287123e-02	-2.282544e-02
0.263439      	-2.299733e-05	4.114351e-02	-4.553050e-02	-2.278825e-02	-2.274225e-02
0.26417       	-2.309798e-05	4.111114e-02	-4.537790e-02	-2.271205e-02	-2.266585e-02
0.264902      	-2.319637e-05	4.113384e-02	-4.525286e-02	-2.264963e-02	-2.260323e-02
0.265632      	-2.329233e-05	4.114985e-02	-4.505710e-02	-2.255184e-02	-2.250526e-02
0.266363      	-2.338604e-05	4.111967e-02	-4.491623e-02	-2.248150e-02	-2.243473e-02
0.267092      	-2.347759e-05	4.106079e-02	-4.474670e-02	-2.239683e-02	-2.234987e-02
0.267822      	-2.356707e-05	4.104450e-02	-4.455254e-02	-2.229984e-02	-2.225270e-02
0.26855       	-2.365450e-05	4.103147e-02	-4.439613e-02	-2.222172e-02	-2.217441e-02
0.269279      	-2.373991e-05	4.104124e-02	-4.420019e-02	-2.212383e-02	-2.207635e-02
0.270007      	-2.382328e-05	4.100341e-02	-4.407474e-02	-2.206119e-02	-2.201355e-02
0.270734      	-2.390409e-05	4.093970e-02	-4.389625e-02	-2.197203e-02	-2.192422e-02
0.271461      	-2.398317e-05	4.091059e-02	-4.369088e-02	-2.186942e-02	-2.182146e-02
0.272188      	-2.406091e-05	4.086969e-02	-4.349545e-02	-2.177179e-02	-2.172367e-02
0.272915      	-2.413724e-05	4.083541e-02	-4.330578e-02	-2.167703e-02	-2.162876e-02
0.273641      	-2.421224e-05	4.079516e-02	-4.312498e-02	-2.158670e-02	-2.153828e-02
0.274366      	-2.428585e-05	4.072335e-02	-4.293186e-02	-2.149022e-02	-2.144164e-02
0.275092      	-2.435812e-05	4.064646e-02	-4.270863e-02	-2.137867e-02	-2.132996e-02
0.275817      	-2.442915e-05	4.056302e-02	-4.249451e-02	-2.127168e-02	-2.122282e-02
0.276542      	-2.449911e-05	4.053386e-02	-4.230344e-02	-2.117622e-02	-2.112722e-02
0.277266      	-2.456805e-05	4.051031e-02	-4.206993e-02	-2.105953e-02	-2.101040e-02
0.27799       	-2.463601e-05	4.045257e-02	-4.183708e-02	-2.094318e-02	-2.089390e-02
0.278714      	-2.470291e-05	4.039487e-02	-4.161024e-02	-2.082983e-02	-2.078042e-02
0.279438      	-2.476873e-05	4.037446e-02	-4.136390e-02	-2.070672e-02	-2.065718e-02
0.280161      	-2.483335e-05	4.029332e-02	-4.116804e-02	-2.060885e-02	-2.055919e-02
0.280885      	-2.489681e-05	4.022095e-02	-4.095795e-02	-2.050387e-02	-2.045408e-02
0.281608      	-2.495901e-05	4.011497e-02	-4.068651e-02	-2.036821e-02	-2.031829e-02
0.28233       	-2.502032e-05	4.004282e-02	-4.045399e-02	-2.025202e-02	-2.020198e-02
0.283053      	-2.508076e-05	3.993513e-02	-4.015650e-02	-2.010333e-02	-2.005317e-02
0.283776      	-2.514047e-05	3.988043e-02	-3.991933e-02	-1.998480e-02	-1.993452e-02
0.284498      	-2.519944e-05	3.980144e-02	-3.966094e-02	-1.985567e-02	-1.980527e-02
0.28522       	-2.525775e-05	3.974630e-02	-3.938927e-02	-1.971989e-02	-1.966938e-02
0.285942      	-2.531542e-05	3.963787e-02	-3.913016e-02	-1.959040e-02	-1.953976e-02
0.286664      	-2.537251e-05	3.949188e-02	-3.884249e-02	-1.944662e-02	-1.939587e-02
0.287386      	-2.542859e-05	3.938846e-02	-3.852676e-02	-1.928881e-02	-1.923795e-02
0.288108      	-2.548433e-05	3.930279e-02	-3.826553e-02	-1.915825e-02	-1.910728e-02
0.28883       	-2.554026e-05	3.917304e-02	-3.794269e-02	-1.899689e-02	-1.894581e-02
0.289552      	-2.559628e-05	3.909231e-02	-3.764665e-02	-1.884892e-02	-1.879773e-02
0.290273      	-2.565259e-05	3.900186e-02	-3.735750e-02	-1.870440e-02	-1.865310e-02
0.290995      	-2.570912e-05	3.887401e-02	-3.702723e-02	-1.853933e-02	-1.848791e-02
0.291717      	-2.576603e-05	3.878018e-02	-3.669300e-02	-1.837226e-02	-1.832073e-02
0.292439      	-2.582323e-05	3.869252e-02	-3.637432e-02	-1.821299e-02	-1.816134e-02
0.29316       	-2.588059e-05	3.856565e-02	-3.606542e-02	-1.805859e-02	-1.800683e-02
0.293882      	-2.593836e-05	3.844950e-02	-3.573499e-02	-1.789343e-02	-1.784156e-02
0.294604      	-2.599665e-05	3.833047e-02	-3.541645e-02	-1.773422e-02	-1.768223e-02
0.295326      	-2.605544e-05	3.824808e-02	-3.510961e-02	-1.758086e-02	-1.752875e-02
0.296048      	-2.611471e-05	3.810741e-02	-3.475089e-02	-1.740156e-02	-1.734933e-02
0.29677       	-2.617455e-05	3.797365e-02	-3.439185e-02	-1.722210e-02	-1.716975e-02
0.297492      	-2.623493e-05	3.782760e-02	-3.402897e-02	-1.704072e-02	-1.698825e-02
0.298214      	-2.629619e-05	3.773029e-02	-3.364894e-02	-1.685077e-02	-1.679817e-02
0.298936      	-2.635835e-05	3.761352e-02	-3.323894e-02	-1.664583e-02	-1.659311e-02
0.299658      	-2.642146e-05	3.749326e-02	-3.287243e-02	-1.646264e-02	-1.640979e-02
0.300381      	-2.648558e-05	3.738644e-02	-3.253113e-02	-1.629205e-02	-1.623908e-02
0.301103      	-2.655065e-05	3.725888e-02	-3.213201e-02	-1.609256e-02	-1.603946e-02
0.301825      	-2.661683e-05	3.713087e-02	-3.171625e-02	-1.588474e-02	-1.583151e-02
0.302548      	-2.668412e-05	3.699980e-02	-3.133042e-02	-1.569190e-02	-1.563853e-02
0.303271      	-2.675247e-05	3.685737e-02	-3.091000e-02	-1.548175e-02	-1.542825e-02
0.303993      	-2.682199e-05	3.675196e-02	-3.045664e-02	-1.525514e-02	-1.520150e-02
0.304716      	-2.689282e-05	3.662412e-02	-3.000328e-02	-1.502853e-02	-1.497475e-02
0.30544       	-2.696491e-05	3.649542e-02	-2.957000e-02	-1.481196e-02	-1.475803e-02
0.306163      	-2.703831e-05	3.639551e-02	-2.908465e-02	-1.456937e-02	-1.451529e-02
0.306887      	-2.711310e-05	3.627056e-02	-2.862881e-02	-1.434152e-02	-1.428729e-02
0.30761       	-2.718909e-05	3.614044e-02	-2.817857e-02	-1.411647e-02	-1.406210e-02